ITEM: TIMESTEP
200000
ITEM: NUMBER OF ATOMS
1000
ITEM: BOX BOUNDS mm mm mm
-1.0000000000000000e+02 1.0000000000000000e+02
-1.0000000000000000e+02 1.0000000000000000e+02
-4.0000000000000000e+01 4.0000000000000000e+01
ITEM: ATOMS id type x y z c_perim
660 1 -4.01398 -21.1181 -9.98731 4
104 1 -5.86974 -20.7801 -10.0246 4
337 1 -7.66072 -20.1051 -9.98556 4
865 1 -0.467444 -21.65 -10.0076 6
412 1 -2.22757 -21.3487 -9.9825 4
266 1 -1.15695 -20.0192 -9.92178 7
495 1 -0.141338 -23.3517 -9.96102 2
314 1 2.96661 -22.8523 -10.0162 5
887 1 1.26361 -22.2527 -10.0345 6
745 1 2.42896 -21.5454 -8.91407 0
138 1 3.43246 -21.2157 -10.164 8
316 1 0.746386 -21.026 -8.94483 0
374 1 1.8899 -20.6937 -10.1893 8
841 1 3.65677 -20.2561 -8.84524 0
845 1 0.369495 -20.188 -10.2224 7
341 1 4.73971 -23.2209 -10.0287 3
664 1 6.51233 -22.2754 -10.003 4
273 1 4.13829 -22.006 -8.9347 0
175 1 5.05091 -21.563 -10.1791 7
849 1 7.16941 -21.2379 -8.92255 0
235 1 5.41412 -20.7751 -8.85992 0
590 1 7.95824 -20.6915 -10.1946 7
82 1 6.33521 -20.4495 -10.1793 9
485 1 8.32949 -22.29 -9.95589 4
456 1 11.5019 -21.2681 -9.98879 3
630 1 9.70531 -20.9962 -9.92654 6
501 1 8.49172 -20.0495 -8.88217 0
877 1 -15.1469 -16.798 -9.88094 5
210 1 -13.6533 -17.8051 -9.86974 5
857 1 -12.1756 -18.8016 -9.94103 3
714 1 -12.0665 -17.1075 -10.1597 8
704 1 -16.6915 -15.8213 -9.92503 5
228 1 -18.2676 -14.9737 -9.98185 3
795 1 -16.7799 -14.0764 -10.0131 8
60 1 -18.3077 -13.2048 -9.94966 5
88 1 -16.7694 -12.4212 -10.1649 8
402 1 -15.7677 -14.6184 -8.8277 0
130 1 -12.6553 -16.4247 -8.86777 0
378 1 -13.5667 -16.1551 -10.1914 8
223 1 -14.2154 -15.5091 -8.89657 0
76 1 -12.1069 -15.4091 -10.145 9
133 1 -15.1033 -15.1281 -10.1965 8
562 1 -12.6667 -14.6216 -8.80724 0
840 1 -13.6468 -14.4324 -10.1164 9
61 1 -14.238 -13.711 -8.87021 0
282 1 -12.2199 -13.6274 -10.1304 9
489 1 -15.1884 -13.4598 -10.1402 9
692 1 -15.8795 -12.8431 -8.86744 0
463 1 -12.7151 -12.8325 -8.83525 0
518 1 -13.7169 -12.7027 -10.1477 9
500 1 -9.25796 -19.2902 -10.0435 4
4 1 -10.5801 -18.1417 -10.1333 7
584 1 -9.39214 -18.1187 -8.87589 0
898 1 -10.9942 -17.2577 -8.89086 0
371 1 -9.17076 -17.2609 -10.18 8
769 1 -7.7938 -18.3343 -10.0235 8
442 1 -7.91701 -17.2 -8.8962 0
193 1 -6.53091 -17.2274 -10.1676 9
759 1 -6.27896 -19.0984 -10.0978 7
267 1 -6.32881 -18.0927 -8.85368 0
348 1 -4.56712 -19.4851 -9.95123 6
317 1 -4.98988 -17.9489 -10.1212 8
819 1 -4.83638 -17.0984 -8.8028 0
361 1 -10.6006 -16.3063 -10.1462 9
77 1 -9.47155 -16.3146 -8.87157 0
476 1 -11.0751 -15.4706 -8.83776 0
134 1 -9.23254 -15.3785 -10.1383 9
103 1 -10.7094 -14.5358 -10.1475 9
275 1 -9.56765 -14.5406 -8.81841 0
897 1 -11.1523 -13.6688 -8.83563 0
658 1 -9.33328 -13.6176 -10.1452 9
109 1 -10.8333 -12.7583 -10.1431 9
249 1 -9.64636 -12.7078 -8.83551 0
187 1 -8.07983 -12.6143 -10.1392 9
454 1 -8.11192 -13.5523 -8.84414 0
387 1 -7.91103 -14.4681 -10.166 9
318 1 -7.99285 -15.3736 -8.83866 0
894 1 -7.87652 -16.2928 -10.1606 8
169 1 -6.44783 -16.2832 -8.84692 0
890 1 -5.13524 -16.2287 -10.1447 9
724 1 -6.54954 -15.4147 -10.1893 10
870 1 -5.03465 -15.3303 -8.92677 0
272 1 -6.55287 -14.4913 -8.96042 0
196 1 -5.22978 -14.4209 -10.1635 9
593 1 -6.62509 -13.5217 -10.1737 10
297 1 -5.31141 -13.3602 -9.07846 0
747 1 -6.74146 -12.5118 -9.09347 0
506 1 -5.30722 -12.4098 -10.2537 9
67 1 -4.0158 -12.3155 -9.03758 0
382 1 -2.79728 -19.638 -10.0338 7
492 1 -2.05528 -17.8523 -10.2043 8
544 1 -3.43947 -18.2608 -9.28454 0
829 1 -0.353678 -18.4699 -10.1452 9
117 1 -1.58948 -18.7051 -8.95826 0
809 1 -3.57957 -16.9248 -10.1293 8
319 1 -0.211778 -17.5436 -8.85718 0
862 1 -0.744781 -16.7151 -10.1298 9
599 1 -1.9602 -16.9424 -8.91182 0
54 1 -3.46849 -16.0698 -8.79232 0
451 1 -2.2417 -15.9251 -10.108 9
438 1 -0.609547 -15.7562 -8.86397 0
55 1 -3.75705 -15.2176 -10.1174 9
817 1 -2.15602 -14.9724 -8.81811 0
46 1 -0.997574 -14.8813 -10.1039 9
63 1 -3.75813 -14.2302 -8.89626 0
602 1 -2.51472 -14.1605 -10.1616 9
201 1 -0.898388 -13.8673 -8.81836 0
296 1 -3.96619 -13.3834 -10.1711 9
777 1 -2.44687 -13.1515 -8.91716 0
166 1 -1.25179 -13.0806 -10.1537 9
22 1 -2.74127 -12.3659 -10.1934 9
403 1 -1.05932 -12.0674 -8.94538 0
376 1 3.27218 -18.5532 -8.85782 0
106 1 2.8442 -16.885 -8.86643 0
338 1 3.00527 -19.4964 -10.1481 9
274 1 2.55498 -17.8431 -10.1702 9
93 1 1.95462 -19.7183 -8.86511 0
70 1 1.49843 -18.0097 -8.82819 0
668 1 1.33448 -18.9549 -10.1319 9
440 1 0.856935 -17.3011 -10.1299 9
237 1 0.205074 -19.2908 -8.86858 0
550 1 3.86571 -16.6901 -10.123 9
677 1 2.15236 -16.1808 -10.1704 9
404 1 3.47054 -15.0876 -10.1397 9
97 1 2.46171 -15.202 -8.85378 0
290 1 1.11508 -16.3359 -8.81436 0
335 1 1.80571 -14.487 -10.1492 9
555 1 3.79206 -14.1129 -8.80088 0
806 1 0.741353 -14.6058 -8.84285 0
800 1 3.12774 -13.4795 -10.1014 9
110 1 2.1013 -13.5181 -8.80632 0
578 1 0.505892 -15.5919 -10.1354 9
333 1 1.54145 -12.7716 -10.11 9
582 1 0.462441 -12.7742 -8.8019 0
608 1 3.39141 -12.3961 -8.72293 0
283 1 0.254132 -13.7673 -10.1128 9
66 1 0.0610994 -12.0595 -10.175 9
457 1 4.67327 -19.9782 -10.1416 9
30 1 6.75974 -19.565 -8.87309 0
176 1 4.9956 -19.072 -8.83127 0
805 1 7.55881 -19.101 -10.1683 9
343 1 5.91576 -18.7595 -10.1378 9
94 1 4.23833 -18.3112 -10.1453 9
799 1 6.32645 -17.8807 -8.85539 0
470 1 8.07087 -18.3443 -8.86222 0
649 1 4.5872 -17.3964 -8.8314 0
158 1 7.18354 -17.5187 -10.1612 9
400 1 5.52244 -17.1336 -10.1101 9
462 1 7.69611 -16.67 -8.85632 0
262 1 8.84139 -17.8111 -10.1276 9
244 1 9.18607 -19.4325 -10.1964 8
408 1 9.39964 -17.061 -8.87178 0
137 1 9.80497 -18.7486 -8.86438 0
312 1 10.4445 -18.0154 -10.1851 9
353 1 10.9428 -19.6378 -9.93603 7
622 1 11.1595 -17.3995 -8.86615 0
886 1 11.7977 -16.6777 -10.1522 10
701 1 5.96957 -16.1925 -8.81881 0
350 1 6.82836 -15.943 -10.1595 9
797 1 5.17697 -15.5335 -10.1285 9
367 1 4.22539 -15.7444 -8.83747 0
303 1 7.26189 -15.0142 -8.84822 0
583 1 8.11492 -14.6761 -10.1895 9
706 1 5.51496 -14.5169 -8.80769 0
789 1 6.44832 -14.3134 -10.1561 9
14 1 4.74665 -13.9244 -10.1344 9
513 1 6.76637 -13.344 -8.82553 0
208 1 7.67612 -13.0697 -10.1421 9
285 1 5.02122 -12.8692 -8.84832 0
698 1 6.03318 -12.7116 -10.138 9
64 1 4.39063 -12.3125 -10.1862 8
41 1 7.91599 -12.1129 -8.82934 0
127 1 8.49211 -16.2401 -10.1419 9
541 1 8.47415 -13.7593 -8.87586 0
23 1 8.96053 -15.3921 -8.85247 0
186 1 10.1464 -16.4404 -10.1488 9
679 1 10.7089 -15.7009 -8.86279 0
525 1 11.4268 -15.1027 -10.1422 9
636 1 9.75764 -14.8633 -10.1348 9
811 1 11.9312 -14.2993 -8.85742 0
520 1 10.2243 -14.0526 -8.85287 0
68 1 10.9742 -13.4757 -10.1459 9
280 1 9.3519 -13.3088 -10.1545 9
625 1 11.3885 -12.6802 -8.84667 0
377 1 9.6812 -12.4173 -8.83498 0
152 1 12.7514 -19.9209 -10.0014 4
369 1 14.0117 -18.4383 -9.95745 5
532 1 15.2196 -17.0074 -10.0005 5
415 1 12.9306 -17.5668 -8.84392 0
255 1 12.135 -18.3184 -10.0737 7
270 1 13.4763 -16.8161 -10.1755 8
53 1 12.4274 -15.9226 -8.85909 0
694 1 14.1743 -16.1606 -8.86311 0
659 1 16.4184 -15.4653 -9.95221 4
510 1 14.7135 -15.3442 -10.1575 9
502 1 13.0783 -15.2384 -10.1352 10
241 1 13.6687 -14.4624 -8.88679 0
119 1 15.3864 -14.6073 -8.88077 0
514 1 12.6414 -13.6499 -10.1521 9
683 1 14.2751 -13.7309 -10.1788 10
344 1 15.9446 -13.8385 -10.2004 8
645 1 13.1381 -12.8646 -8.85345 0
586 1 14.8548 -12.9667 -8.90383 0
231 1 16.5883 -13.0774 -8.89368 0
772 1 12.1458 -12.1004 -10.1433 9
770 1 13.7933 -12.1597 -10.1482 9
534 1 15.4535 -12.218 -10.1859 10
854 1 17.7009 -13.8317 -9.9916 3
328 1 18.8142 -12.1257 -9.98088 4
472 1 17.1008 -12.177 -10.1387 7
881 1 -20.2308 -7.1093 -9.97442 3
355 1 -20.0268 -5.27053 -10.0008 3
122 1 -18.4595 -11.4668 -10.0417 6
483 1 -17.4404 -11.9601 -8.85617 0
329 1 -18.6161 -9.75618 -10.0043 4
833 1 -16.9104 -10.8048 -10.1654 8
868 1 -17.5368 -10.2009 -8.8469 0
726 1 -17.0422 -9.10516 -10.1682 8
143 1 -17.6318 -8.4142 -8.85368 0
866 1 -16.0139 -9.32123 -8.8838 0
728 1 -15.9376 -11.0982 -8.91645 0
437 1 -15.4145 -10.0877 -10.1613 9
18 1 -15.2544 -11.7683 -10.1693 9
399 1 -14.4856 -8.40641 -8.8411 0
466 1 -14.4107 -10.1774 -8.87505 0
151 1 -14.3435 -11.9766 -8.8628 0
888 1 -13.8268 -10.958 -10.1694 9
450 1 -12.4499 -10.0495 -10.1465 9
830 1 -12.3106 -11.8661 -10.1261 9
648 1 -14.0013 -9.22087 -10.1335 9
878 1 -12.8344 -11.0293 -8.86491 0
222 1 -12.8921 -9.23647 -8.86816 0
695 1 -15.5062 -8.33502 -10.1873 9
284 1 -18.7679 -8.05488 -10.0394 5
512 1 -17.1462 -7.34391 -10.0633 8
493 1 -18.6017 -6.33444 -9.93065 6
665 1 -17.13 -5.60274 -10.1439 7
775 1 -18.3417 -4.52984 -9.94886 5
715 1 -16.6795 -4.16207 -9.19237 0
190 1 -16.2438 -5.87642 -8.85899 0
410 1 -16.058 -7.60102 -8.88052 0
826 1 -12.6283 -8.2769 -10.1534 9
401 1 -14.1117 -7.41508 -10.151 9
707 1 -13.0777 -7.41183 -8.88106 0
92 1 -15.59 -6.6155 -10.1482 9
542 1 -14.5913 -6.61917 -8.85053 0
225 1 -12.6941 -6.45252 -10.1608 9
618 1 -14.1707 -5.68029 -10.1405 9
197 1 -13.1655 -5.58577 -8.85766 0
156 1 -15.641 -4.89357 -10.1617 8
528 1 -14.8208 -4.82479 -8.85444 0
29 1 -12.8266 -4.61371 -10.136 9
839 1 -10.9456 -10.9232 -10.1463 9
588 1 -9.51779 -11.795 -10.1192 9
256 1 -11.2455 -11.8787 -8.81678 0
86 1 -11.3666 -10.0363 -8.86849 0
300 1 -9.77734 -10.8652 -8.81593 0
776 1 -9.6646 -9.92196 -10.142 9
395 1 -11.1315 -9.08623 -10.1401 9
727 1 -9.94497 -9.04984 -8.79074 0
444 1 -8.35944 -8.90425 -10.1367 9
99 1 -8.38628 -9.84751 -8.86046 0
818 1 -8.24567 -11.6969 -8.82259 0
533 1 -8.25442 -10.8052 -10.1327 9
247 1 -6.97212 -9.74208 -10.2342 10
379 1 -7.0807 -8.80753 -9.01463 0
831 1 -6.77529 -11.6289 -10.2717 9
824 1 -6.93788 -10.7075 -9.07417 0
164 1 -5.50019 -11.5149 -9.03779 0
650 1 -4.04234 -11.3272 -10.2104 9
245 1 -5.51876 -10.5778 -10.2479 10
389 1 -5.72277 -9.71361 -9.02568 0
281 1 -4.30188 -10.4838 -8.95655 0
352 1 -4.21141 -9.58011 -10.1942 10
139 1 -5.68867 -8.78827 -10.2413 10
816 1 -4.48153 -8.72671 -8.98338 0
539 1 -11.5028 -8.19223 -8.83736 0
131 1 -9.80596 -8.1143 -10.1361 9
563 1 -8.48734 -8.03302 -8.76557 0
232 1 -11.2388 -7.28142 -10.1749 9
37 1 -10.0564 -7.20547 -8.84622 0
294 1 -8.50041 -7.11749 -10.1294 9
32 1 -11.6382 -6.38846 -8.89199 0
254 1 -9.88553 -6.24369 -10.1321 9
558 1 -8.66836 -6.1711 -8.82277 0
26 1 -11.3719 -5.41542 -10.1548 9
484 1 -10.2497 -5.37758 -8.84471 0
278 1 -8.53862 -5.31473 -10.1574 9
735 1 -9.96023 -4.46175 -10.1471 9
783 1 -11.7704 -4.57857 -8.84001 0
264 1 -8.78281 -4.4304 -8.8472 0
725 1 -7.2238 -6.93436 -8.96306 0
411 1 -7.04848 -7.86199 -10.1903 9
295 1 -5.75824 -7.85009 -9.04015 0
739 1 -4.39622 -7.76898 -10.2331 10
577 1 -4.32397 -6.83568 -8.98302 0
356 1 -5.71332 -6.81019 -10.1506 10
746 1 -5.80886 -6.24062 -8.60215 0
736 1 -7.15576 -6.0766 -10.226 8
8 1 -4.361 -5.86971 -10.1241 8
827 1 -4.75719 -4.98362 -8.75634 0
616 1 -7.1224 -5.20323 -8.86019 0
515 1 -5.7794 -5.12559 -10.011 9
847 1 -7.19129 -4.33139 -10.2035 8
607 1 -4.20315 -4.26278 -10.09 9
58 1 -1.5205 -11.3829 -10.1973 8
305 1 -2.76071 -10.4106 -10.2513 9
43 1 -2.73066 -11.3351 -9.00152 0
301 1 -1.4145 -10.3718 -8.95013 0
843 1 -3.00268 -9.66259 -9.02031 0
661 1 -0.375389 -10.4009 -10.2267 9
271 1 -1.56116 -9.32784 -9.99317 9
741 1 -2.95084 -8.62309 -10.2638 9
905 2 -1.9821 -8.65984 -8.40876 0
159 1 -0.293199 -8.54135 -10.1605 8
102 1 -0.0432968 -9.51454 -8.94926 0
991 2 -0.501072 -7.97131 -8.64474 0
619 1 -1.64582 -7.70667 -9.8972 10
771 1 -3.22097 -7.96971 -9.00969 0
753 1 -0.159878 -6.9594 -9.93856 9
202 1 -3.01248 -6.78558 -10.0487 9
969 2 -2.08419 -6.86532 -8.62821 0
904 2 -0.617211 -6.29399 -8.5449 0
162 1 -1.49615 -6.06085 -10.0037 9
949 2 -3.39568 -5.77261 -8.28758 0
487 1 -2.88823 -5.18831 -9.87255 9
940 2 -1.86259 -5.21542 -8.72034 0
911 2 -0.25749 -4.54931 -8.56205 0
774 1 -1.34813 -4.36124 -9.92821 9
935 2 -3.23128 -4.0977 -8.68347 0
221 1 -0.0466376 -5.35065 -9.96498 9
479 1 2.88121 -11.8503 -10.0989 8
279 1 3.01925 -10.3736 -10.0993 8
538 1 3.52202 -9.3271 -9.07056 0
556 1 2.44186 -8.87897 -10.151 8
425 1 1.79781 -11.7378 -8.78071 0
546 1 1.83657 -9.82831 -8.99383 0
342 1 1.42929 -11.0682 -10.1513 9
984 2 1.01273 -8.79762 -8.08836 0
396 1 0.968068 -9.56585 -10.1646 8
140 1 0.356172 -11.013 -8.99679 0
639 1 2.95398 -10.6245 -8.31418 0
430 1 3.89583 -8.25388 -10.2191 8
970 2 2.4813 -8.11229 -8.56601 0
216 1 2.55186 -7.27537 -10.0966 9
748 1 3.85936 -7.27151 -9.02582 0
975 2 2.41291 -6.5699 -8.78965 0
535 1 1.24445 -6.38083 -10.0815 9
610 1 1.13505 -8.06445 -9.74851 10
331 1 3.89187 -6.27338 -10.1448 9
913 2 0.971577 -7.19415 -8.66809 0
946 2 3.91878 -5.76759 -8.28865 0
700 1 2.56944 -5.52078 -9.99648 8
936 2 1.02968 -5.46958 -8.60976 0
322 1 3.92598 -4.83041 -9.57118 9
992 2 2.56598 -4.59212 -8.59183 0
646 1 1.40743 -4.55917 -10.0373 9
78 1 7.16376 -11.4852 -10.1276 9
596 1 6.11225 -11.6276 -8.81541 0
9 1 5.54373 -11.128 -10.2038 8
654 1 6.70844 -9.94205 -10.1765 8
597 1 4.65737 -9.72292 -10.1498 8
146 1 4.2783 -11.0777 -9.23659 0
545 1 7.73774 -8.63738 -10.1711 9
174 1 7.34625 -10.4641 -8.80695 0
388 1 5.71011 -9.97423 -8.97031 0
325 1 6.87778 -8.81277 -8.92723 0
531 1 5.94466 -8.60409 -10.208 9
473 1 4.9735 -8.48437 -9.12008 0
788 1 8.32077 -10.1745 -10.1167 9
863 1 8.48732 -9.10996 -8.83561 0
793 1 8.83488 -11.7288 -10.1247 9
3 1 9.09595 -10.7979 -8.77912 0
263 1 9.39432 -8.79467 -10.1491 9
48 1 9.93735 -10.3903 -10.1479 9
59 1 10.1431 -9.45953 -8.82618 0
2 1 10.4825 -11.9115 -10.1504 9
848 1 10.7947 -11.0301 -8.82632 0
257 1 10.9831 -8.99137 -10.1351 9
460 1 11.6074 -10.5591 -10.1343 9
488 1 11.8583 -9.64886 -8.8073 0
875 1 7.77645 -7.43614 -8.81178 0
732 1 6.95903 -7.2817 -10.185 9
277 1 6.13355 -7.39426 -8.96277 0
752 1 5.15359 -7.17007 -10.1596 9
705 1 7.84645 -5.8728 -10.0922 9
461 1 6.23296 -5.86617 -10.1942 9
791 1 5.09463 -5.93703 -9.16475 0
123 1 7.00216 -4.47702 -10.1283 9
414 1 7.82715 -4.68694 -8.78125 0
814 1 5.13018 -4.72998 -10.2825 8
580 1 6.74217 -5.91029 -8.69214 0
899 1 5.83586 -4.38803 -9.0598 0
927 2 4.05465 -4.01587 -8.21833 0
812 1 8.78118 -4.46162 -10.0981 9
529 1 8.7165 -7.28576 -10.1419 9
673 1 8.76315 -6.10233 -8.82263 0
439 1 9.48378 -7.76262 -8.84547 0
575 1 11.1392 -8.06393 -8.77091 0
47 1 10.3782 -7.3398 -10.1408 9
594 1 11.9281 -7.60642 -10.1311 9
214 1 10.5278 -6.33789 -8.83625 0
227 1 9.62812 -5.84549 -10.1505 9
44 1 11.296 -5.711 -10.1084 9
662 1 9.86346 -4.79968 -8.82659 0
672 1 11.7184 -4.63077 -8.99944 0
507 1 10.4862 -4.22299 -10.1498 8
42 1 12.5141 -11.2601 -8.80804 0
452 1 13.2392 -10.6275 -10.1325 9
481 1 13.6261 -9.76745 -8.83787 0
73 1 14.2597 -11.3976 -8.86202 0
576 1 15.9926 -11.4187 -8.89523 0
790 1 15.3521 -9.83395 -8.88564 0
717 1 14.8887 -10.6665 -10.1436 9
684 1 16.493 -10.5668 -10.1635 10
522 1 15.8554 -9.00288 -10.1423 10
475 1 14.2596 -9.13157 -10.1613 9
773 1 12.6185 -9.09981 -10.131 9
676 1 17.0591 -9.77299 -8.90915 0
656 1 17.4917 -8.86206 -10.1448 9
688 1 18.1457 -10.4621 -10.1847 8
108 1 17.7155 -11.3654 -8.90444 0
441 1 19.1462 -8.80944 -10.1725 9
611 1 18.8323 -9.76604 -8.91329 0
191 1 19.7996 -10.5801 -10.0115 5
548 1 14.6935 -8.30498 -8.85628 0
802 1 16.4036 -8.22152 -8.84752 0
589 1 12.8858 -8.20137 -8.81454 0
587 1 13.5826 -7.65065 -10.1527 9
181 1 15.1453 -7.46763 -10.146 10
1 1 12.1489 -6.6625 -8.82043 0
351 1 14.0011 -6.82468 -8.82015 0
251 1 15.7107 -6.69875 -8.82171 0
324 1 12.796 -6.26823 -10.1914 8
25 1 14.321 -5.99808 -10.1461 9
405 1 15.8736 -5.83242 -10.1599 9
293 1 13.2308 -5.39779 -8.85272 0
889 1 14.9158 -5.20296 -8.86277 0
540 1 16.5642 -5.04443 -8.85678 0
302 1 14.5505 -4.37697 -10.1397 9
767 1 16.1606 -4.18868 -10.147 9
363 1 12.9165 -4.6534 -10.1772 9
311 1 16.7358 -7.34031 -10.1496 9
835 1 17.423 -5.73367 -10.1526 9
871 1 17.3893 -6.60385 -8.88459 0
780 1 18.1306 -8.15228 -8.88512 0
6 1 19.9086 -8.10106 -8.89729 0
449 1 18.3622 -7.25029 -10.1493 9
212 1 19.9878 -7.15519 -10.1725 8
238 1 19.1425 -6.52481 -8.87008 0
781 1 19.0282 -5.61819 -10.1541 9
394 1 18.2148 -4.9672 -8.86949 0
28 1 19.9176 -4.87931 -8.93593 0
624 1 17.7699 -4.09457 -10.1648 9
45 1 19.4258 -4.00035 -10.1686 8
258 1 20.7907 -9.06118 -10.0082 4
129 1 21.6326 -7.48103 -10.0372 4
815 1 20.9048 -6.47665 -8.87938 0
872 1 22.3099 -5.79222 -9.9972 5
850 1 20.6522 -5.58644 -10.188 7
766 1 21.5807 -4.78916 -8.8978 0
79 1 21.0424 -4.014 -10.2016 8
19 1 -17.5588 -2.97099 -10.0864 5
448 1 -17.6302 -1.18499 -9.93989 4
230 1 -16.5536 -2.31206 -8.89365 0
217 1 -15.991 -1.59317 -10.1826 7
465 1 -15.8314 -3.23976 -10.1988 8
33 1 -15.0981 -1.25378 -8.8972 0
837 1 -15.0018 -3.06446 -8.86509 0
406 1 -14.5862 -0.400249 -10.1915 9
10 1 -14.4336 -2.16764 -10.1611 9
653 1 -14.2942 -3.90551 -10.1343 9
737 1 -13.3908 -3.8249 -8.81196 0
12 1 -13.0403 -1.13586 -10.1462 9
165 1 -13.5135 -2.00658 -8.82628 0
856 1 -12.9076 -2.90783 -10.1281 9
206 1 -12.0685 -1.05078 -8.85002 0
215 1 -13.6377 -0.238188 -8.85137 0
213 1 -16.2094 1.71934 -10.0636 5
52 1 -16.3381 0.0193149 -9.99847 5
787 1 -15.1893 0.607543 -8.96468 0
171 1 -13.0493 0.600411 -10.1436 9
287 1 -12.1204 0.729349 -8.84415 0
685 1 -14.5547 1.35077 -10.1767 8
669 1 -13.6629 1.5454 -8.86348 0
205 1 -15.1726 2.38895 -8.88684 0
17 1 -13.0179 2.29851 -10.156 9
565 1 -12.0967 2.4517 -8.83936 0
796 1 -14.5393 3.02194 -10.1602 8
505 1 -13.5895 3.34033 -8.88943 0
756 1 -16.183 3.49254 -10.0269 5
56 1 -11.3835 -3.6669 -10.1228 9
808 1 -9.98374 -2.70002 -10.1489 9
132 1 -11.4876 -1.91838 -10.1262 9
570 1 -10.5007 -1.85505 -8.82502 0
421 1 -11.9378 -2.82114 -8.81897 0
721 1 -10.3696 -3.62271 -8.84869 0
498 1 -8.52876 -1.75275 -10.1425 9
568 1 -8.53975 -3.45527 -10.1151 9
20 1 -8.96043 -2.65369 -8.80413 0
135 1 -10.0198 -0.954281 -10.1608 9
670 1 -9.04036 -0.919492 -8.84255 0
794 1 -11.568 -0.187854 -10.1561 9
364 1 -10.5444 -0.105316 -8.85561 0
703 1 -8.51296 -0.053497 -10.1354 9
188 1 -7.51527 -1.70388 -8.85176 0
723 1 -7.07155 -2.59707 -10.1464 9
250 1 -6.99703 -0.88253 -10.1354 9
219 1 -7.35113 -3.50276 -8.83764 0
372 1 -5.98423 -0.825534 -8.79795 0
50 1 -5.7037 -3.49932 -9.98963 8
161 1 -5.54622 -1.76654 -10.1096 9
517 1 -4.13834 -2.65005 -10.1358 9
427 1 -4.61111 -3.34899 -8.7031 0
229 1 -6.01823 -2.48682 -8.80033 0
419 1 -4.03836 -0.918822 -10.1229 9
39 1 -4.51823 -0.051245 -8.80891 0
390 1 -4.45173 -1.74255 -8.79347 0
209 1 -5.49381 -0.0381874 -10.1542 9
313 1 -7.51676 -0.00247527 -8.84329 0
880 1 -10.0242 0.749984 -10.162 9
455 1 -9.06364 0.818213 -8.85684 0
844 1 -11.5351 1.48948 -10.1524 9
876 1 -10.5513 1.63149 -8.8247 0
354 1 -8.47096 1.636 -10.152 9
600 1 -10.0009 2.40884 -10.1303 9
486 1 -9.01393 2.55277 -8.86344 0
184 1 -11.4654 3.23607 -10.1359 9
418 1 -8.41797 3.30237 -10.1342 9
523 1 -10.4849 3.38371 -8.84541 0
83 1 -7.52324 1.70728 -8.84205 0
627 1 -7.00732 0.799587 -10.1754 9
142 1 -4.04139 0.774439 -10.1557 9
346 1 -6.03221 0.855461 -8.86431 0
687 1 -5.45951 1.67374 -10.1473 9
445 1 -4.4957 1.68788 -8.83435 0
315 1 -6.95781 2.46418 -10.1602 9
431 1 -6.00973 2.60436 -8.85368 0
573 1 -5.3845 3.33936 -10.1343 9
497 1 -4.40925 3.40114 -8.84624 0
749 1 -7.45247 3.44943 -8.85481 0
989 2 -1.62826 -3.47843 -8.40648 0
681 1 -2.64233 -3.57141 -10.1513 8
941 2 -0.182125 -2.77365 -8.59486 0
943 2 -1.6069 -1.80708 -8.38694 0
716 1 -1.25035 -2.73614 -9.85232 10
508 1 -2.90168 -2.54862 -9.13963 0
647 1 -2.51606 -1.69602 -10.2244 8
690 1 -1.05142 -1.13491 -10.0079 9
21 1 -2.94461 -0.970592 -8.86188 0
326 1 -2.5558 -0.087744 -10.1505 9
347 1 -1.56029 -0.24167 -8.86547 0
977 2 -0.0543721 -1.09772 -8.58645 0
155 1 -1.09734 0.589649 -10.1211 9
179 1 -0.114558 0.526864 -8.88271 0
638 1 -3.10203 0.714854 -8.94423 0
552 1 -1.52671 1.41804 -8.77401 0
482 1 -2.48602 1.5617 -10.1349 9
516 1 -0.986021 2.25654 -10.1345 9
246 1 -2.93814 2.4322 -8.83122 0
731 1 -3.90346 2.45418 -10.1308 9
194 1 -1.39718 3.18832 -8.81909 0
674 1 -2.35007 3.24351 -10.1452 9
147 1 -0.774317 3.95025 -10.0941 9
375 1 -0.040842 2.17198 -8.86831 0
49 1 3.25654 -0.497636 -10.1426 8
153 1 3.17987 -2.15249 -9.95751 10
995 2 2.93892 -1.0865 -8.68013 0
113 1 2.90492 -3.79841 -10.0228 8
908 2 2.76497 -2.98716 -8.567 0
207 1 1.79414 -1.26069 -10.0223 9
150 1 1.64395 -2.91598 -9.98905 9
903 2 1.36853 -1.98832 -8.60769 0
1000 2 1.45397 -0.311825 -8.72726 0
952 2 1.26756 -3.78214 -8.70079 0
592 1 0.384518 -0.357548 -10.0937 9
632 1 0.298792 -2.03922 -10.0122 9
858 1 0.124537 -3.64559 -9.97715 9
468 1 2.83725 0.54974 -8.98167 0
358 1 1.82988 0.409499 -10.1673 9
443 1 3.35813 1.2525 -10.2452 9
861 1 1.39131 1.33467 -8.93504 0
722 1 1.97695 2.0616 -10.2211 9
882 1 2.96972 2.27262 -9.05034 0
35 1 3.66694 2.87095 -10.2411 9
189 1 1.54837 3.00522 -8.98563 0
853 1 0.579798 2.98018 -10.1615 9
612 1 0.413393 1.3222 -10.1953 9
595 1 2.21794 3.71129 -10.1855 10
757 1 3.22645 3.8733 -9.04922 0
163 1 0.221072 3.9207 -8.7614 0
641 1 5.95589 -3.2268 -10.1943 9
986 2 4.22086 -2.15625 -8.35658 0
172 1 4.45457 -3.30471 -9.5904 11
810 1 5.73891 -2.09718 -9.14048 0
626 1 6.91363 -1.89427 -10.1602 9
199 1 7.95102 -2.05168 -8.80248 0
144 1 4.70215 -1.92031 -10.2562 7
458 1 7.90621 -3.1327 -10.1462 9
148 1 6.8139 -0.897225 -8.94532 0
380 1 4.42477 -0.896629 -9.24913 0
36 1 5.79433 -0.739332 -10.1414 9
298 1 6.96095 -3.27208 -8.89162 0
195 1 7.42788 -0.253849 -10.1956 9
785 1 10.135 -0.0473073 -8.81782 0
896 1 8.45537 -0.45936 -8.75087 0
409 1 8.50768 -1.45615 -10.1438 9
224 1 9.49507 -2.84735 -10.1378 9
754 1 11.8905 -3.46412 -10.1377 8
547 1 8.91266 -3.39201 -8.81289 0
259 1 9.61408 -1.75223 -8.90873 0
784 1 10.9553 -2.19493 -10.1543 8
362 1 10.0148 -0.930887 -10.1645 9
663 1 10.6908 -3.18286 -8.8867 0
330 1 11.2811 -1.35629 -8.84494 0
617 1 11.5166 -0.464344 -10.1676 9
734 1 5.65141 0.276403 -8.90841 0
764 1 4.65945 0.373376 -10.1664 8
308 1 7.27131 0.742761 -8.98964 0
236 1 6.25376 0.910478 -10.1865 9
852 1 4.368 1.43006 -9.03008 0
27 1 7.8319 1.55368 -10.1765 9
846 1 5.97844 1.93939 -8.99834 0
128 1 5.03318 2.02605 -10.228 9
141 1 7.65912 2.52758 -8.91651 0
765 1 6.67657 2.66941 -10.2183 9
680 1 4.64729 3.06123 -9.03007 0
537 1 6.38301 3.66283 -8.96508 0
392 1 5.40123 3.67844 -10.1957 9
997 2 4.04894 0.0975321 -8.18577 0
666 1 8.3153 3.23899 -10.1507 9
804 1 8.88012 1.27681 -8.78678 0
895 1 8.9113 0.283863 -10.0927 9
708 1 9.38556 2.00929 -10.1211 9
24 1 11.8384 0.359091 -8.83086 0
869 1 10.4574 0.768786 -10.1593 9
711 1 11.9835 1.22049 -10.1495 9
874 1 10.6055 1.65337 -8.86972 0
383 1 10.9288 2.48032 -10.1654 8
873 1 9.36737 2.94464 -8.82052 0
120 1 11.1312 3.40087 -8.84542 0
429 1 9.88792 3.74016 -10.1536 9
72 1 12.487 -1.7317 -10.1601 9
884 1 12.4094 -2.70904 -8.85382 0
168 1 13.5116 -2.97909 -10.1581 9
614 1 15.1192 -2.71311 -10.1665 9
553 1 14.2009 -2.24293 -8.84106 0
710 1 15.391 -3.57829 -8.86773 0
391 1 15.9679 -1.97153 -8.86493 0
180 1 13.6228 -3.87475 -8.86031 0
813 1 15.6442 -1.06096 -10.117 9
167 1 14.0703 -1.33593 -10.17 9
426 1 13.0094 -0.952923 -8.86034 0
368 1 14.7808 -0.556503 -8.85183 0
879 1 16.556 -0.329203 -8.85971 0
892 1 13.0211 -0.00634075 -10.1522 9
178 1 16.7074 -2.60324 -10.1624 9
357 1 17.1242 -3.39739 -8.88298 0
686 1 17.2678 -1.01731 -10.1439 9
838 1 17.7026 -1.78058 -8.86903 0
712 1 18.3504 -2.5119 -10.1508 10
288 1 18.307 -0.149249 -8.86167 0
91 1 18.8218 -3.34703 -8.86035 0
292 1 18.936 -0.941294 -10.1564 9
585 1 19.4544 -1.68098 -8.84913 0
697 1 19.9573 -2.45623 -10.2023 9
173 1 14.6122 0.350093 -10.1487 9
567 1 16.2096 0.539417 -10.1534 9
569 1 13.58 0.74072 -8.84692 0
65 1 15.3286 1.10598 -8.83936 0
536 1 13.503 1.70565 -10.1411 9
69 1 12.3913 2.07111 -8.84691 0
98 1 15.1097 2.02042 -10.1379 9
116 1 14.1538 2.46177 -8.84363 0
366 1 12.4449 2.96988 -10.1386 9
682 1 15.9652 2.77111 -8.86486 0
407 1 14.0028 3.36614 -10.1595 9
243 1 12.8514 3.78743 -8.84493 0
112 1 15.6522 3.63295 -10.1668 8
652 1 16.747 2.11387 -10.1756 8
242 1 17.146 1.32576 -8.88974 0
751 1 17.8455 0.568837 -10.2091 8
885 1 19.5452 0.629733 -9.93322 5
782 1 18.4314 2.14405 -9.93087 5
635 1 17.3596 3.68709 -9.89694 5
554 1 22.7125 -3.95703 -9.95745 4
87 1 20.5454 -3.21753 -8.88081 0
447 1 20.6563 -0.898993 -9.99879 5
742 1 21.6791 -2.42055 -9.96441 5
778 1 -16.0719 5.23319 -10.0285 5
289 1 -15.9354 7.01715 -9.97888 4
226 1 -15.088 5.91822 -8.86174 0
192 1 -15.144 4.16149 -8.86933 0
760 1 -14.4557 8.00965 -10.0242 6
360 1 -14.4598 4.70853 -10.1575 8
859 1 -14.3472 6.33886 -10.2061 8
591 1 -12.9482 4.01706 -10.1693 9
891 1 -12.818 5.71128 -10.1659 9
327 1 -13.5834 5.05983 -8.88224 0
643 1 -13.461 6.78802 -8.89675 0
413 1 -12.0234 4.21555 -8.82742 0
620 1 -12.7555 7.43175 -10.1999 9
345 1 -13.2893 8.51781 -8.89899 0
509 1 -12.5379 9.17706 -10.1685 6
90 1 -14.1338 9.71863 -9.96289 3
464 1 -11.3626 4.91452 -10.1312 9
268 1 -11.9468 5.94717 -8.86235 0
560 1 -9.87067 4.11235 -10.1558 9
864 1 -11.2599 6.61189 -10.1656 9
603 1 -10.3114 6.84619 -8.85369 0
842 1 -10.4414 5.11707 -8.88109 0
779 1 -9.77922 5.76842 -10.1588 9
57 1 -8.82654 6.03445 -8.88134 0
572 1 -8.95746 4.32473 -8.84344 0
198 1 -9.62798 7.44901 -10.1551 9
480 1 -11.8296 7.67531 -8.90513 0
233 1 -8.73107 7.76279 -8.88256 0
417 1 -11.0851 8.30804 -10.157 9
323 1 -8.31193 4.97222 -10.1804 9
521 1 -8.12843 6.63384 -10.1538 9
218 1 -7.8934 8.26713 -10.1334 10
604 1 -7.37439 5.20315 -8.84846 0
100 1 -7.25284 6.93072 -8.86261 0
494 1 -6.85735 4.17184 -10.1619 9
598 1 -6.6791 5.81102 -10.1424 9
702 1 -6.43508 7.47156 -10.1309 9
467 1 -5.89258 4.31308 -8.82685 0
828 1 -5.79015 6.05029 -8.85553 0
557 1 -5.25853 4.97427 -10.1563 9
309 1 -4.31562 5.12653 -8.85538 0
693 1 -5.03243 6.62566 -10.1426 9
220 1 -4.11805 6.83418 -8.83072 0
720 1 -5.59963 7.74372 -8.81974 0
675 1 -4.81386 8.22348 -10.125 9
801 1 -10.1798 8.61778 -8.87049 0
543 1 -9.38475 9.07314 -10.2064 9
821 1 -11.7085 9.40271 -8.82737 0
111 1 -8.60224 9.53658 -8.91455 0
332 1 -10.7319 10.0213 -10.0328 6
11 1 -9.16133 10.8395 -9.99299 5
893 1 -7.65263 9.90251 -10.168 9
62 1 -7.06813 8.63973 -8.84558 0
823 1 -6.21968 9.08885 -10.1274 10
145 1 -5.40286 9.49926 -8.88054 0
471 1 -4.55658 9.8176 -10.1767 9
657 1 -6.9159 10.4036 -8.861 0
883 1 -6.02405 10.705 -10.1804 9
51 1 -5.2446 11.2138 -8.8826 0
504 1 -4.29894 11.4244 -10.1938 9
825 1 -7.48722 11.6596 -9.93381 5
370 1 -2.14796 4.88567 -10.1718 9
606 1 -2.6545 5.89705 -8.92082 0
667 1 -0.511043 5.60803 -10.12 9
713 1 -3.77832 4.12477 -10.1511 9
629 1 -3.63296 5.75784 -10.1747 9
579 1 -1.23057 4.91084 -8.81161 0
115 1 -2.85424 4.2045 -8.84461 0
118 1 -1.92128 6.51415 -10.18 9
252 1 -1.0139 6.65716 -8.87317 0
34 1 -0.239578 7.22494 -10.1591 9
574 1 -3.36268 7.35202 -10.1358 9
5 1 -2.46272 7.61398 -8.86702 0
851 1 -1.6777 8.13806 -10.1527 9
240 1 -0.796684 8.31838 -8.83848 0
631 1 -3.93506 8.55788 -8.84987 0
423 1 -3.1182 8.97384 -10.1641 10
96 1 -2.23661 9.31631 -8.84885 0
177 1 -1.38499 9.72111 -10.1327 10
743 1 -0.532563 10.0286 -8.8484 0
71 1 -3.71508 10.2227 -8.88221 0
469 1 -2.83596 10.6151 -10.1575 10
564 1 -2.01754 11.0518 -8.86577 0
689 1 -1.12902 11.3343 -10.197 9
733 1 -0.354747 11.7268 -8.86011 0
384 1 -3.55542 11.9335 -8.85885 0
157 1 3.9274 4.49736 -10.2334 8
7 1 3.39469 5.48844 -8.97333 0
121 1 3.84615 7.16715 -8.86482 0
559 1 2.87303 6.94696 -10.1493 10
499 1 2.4677 5.32869 -10.1844 9
149 1 2.35721 8.08671 -8.83964 0
124 1 2.03863 6.44937 -8.84884 0
792 1 1.8226 4.69553 -8.77999 0
519 1 1.44816 7.86934 -10.1365 9
605 1 1.12586 6.2819 -10.1554 9
750 1 0.851577 4.64158 -10.111 9
424 1 0.610604 7.38044 -8.85954 0
203 1 0.437462 5.64123 -8.82896 0
678 1 3.15564 8.61479 -10.142 9
730 1 1.7162 9.47999 -10.1622 9
154 1 2.59163 9.83462 -8.83982 0
718 1 3.38466 10.2444 -10.144 9
738 1 0.896206 9.08269 -8.84386 0
265 1 1.15293 10.8162 -8.85127 0
551 1 1.96256 11.1269 -10.1936 9
477 1 2.79595 11.5699 -8.87047 0
758 1 0.281127 10.401 -10.1725 10
95 1 3.66442 11.8469 -10.2066 9
306 1 0.0362277 8.80407 -10.1511 9
530 1 7.4608 6.01457 -10.169 9
182 1 5.8044 5.31078 -10.2123 8
75 1 4.33848 6.09895 -10.0981 9
459 1 7.11051 4.35881 -10.1899 9
101 1 6.79022 5.32518 -8.91008 0
615 1 4.90256 4.70754 -9.10542 0
496 1 5.44067 6.29827 -8.94093 0
613 1 8.04995 4.18004 -8.83377 0
644 1 6.07466 6.94885 -10.1774 9
807 1 7.03662 6.98591 -8.89946 0
571 1 7.74378 7.65594 -10.1579 9
340 1 5.53152 7.95857 -8.86345 0
867 1 4.58409 7.73733 -10.1622 9
38 1 8.44317 5.88693 -8.81137 0
40 1 8.72567 4.93335 -10.1256 9
803 1 8.71498 7.56431 -8.83996 0
637 1 9.11869 6.61891 -10.1184 9
321 1 9.77647 4.6815 -8.86091 0
422 1 10.1196 6.37726 -8.83944 0
307 1 10.3475 5.48338 -10.1668 9
503 1 10.4363 8.13536 -8.84988 0
836 1 10.7022 7.21375 -10.1712 9
581 1 11.4326 4.24971 -10.142 9
761 1 11.5205 5.16761 -8.86199 0
762 1 11.969 6.01098 -10.1862 9
85 1 11.8126 6.88172 -8.8503 0
696 1 9.39214 8.3261 -10.1444 9
768 1 7.24889 8.67638 -8.90011 0
299 1 6.28429 8.55388 -10.1481 9
74 1 4.01411 8.86123 -8.83828 0
628 1 7.96957 9.32458 -10.1621 9
834 1 4.82216 9.39919 -10.13 9
13 1 5.75512 9.64104 -8.84068 0
561 1 7.44737 10.355 -8.89012 0
453 1 6.49593 10.1648 -10.1489 9
900 1 4.2947 10.5847 -8.86614 0
511 1 8.23838 11.026 -10.1874 9
239 1 5.08075 11.0654 -10.156 9
642 1 5.97659 11.4124 -8.89228 0
160 1 6.76141 11.7962 -10.1945 7
763 1 8.95435 9.29165 -8.8707 0
719 1 9.09047 10.9958 -8.82953 0
435 1 9.61747 10.0301 -10.1737 9
204 1 10.9564 8.96351 -10.1531 8
248 1 10.6092 9.92301 -8.89168 0
291 1 11.3477 10.7826 -10.0842 5
832 1 9.94514 11.7567 -10.0136 5
286 1 12.9921 4.71178 -10.1494 7
699 1 14.5667 5.15228 -10.0882 8
385 1 14.636 4.13961 -8.87777 0
446 1 13.2263 5.57714 -8.9008 0
491 1 16.2827 5.16523 -9.91597 4
84 1 15.3086 6.68636 -10.0011 3
260 1 13.5124 6.66524 -10.0457 5
381 1 12.3039 7.87556 -10.0417 6
416 1 12.5496 9.5673 -9.91169 3
310 1 -5.8627 12.4466 -9.99356 5
420 1 -4.19247 13.1152 -9.9636 4
349 1 -2.54727 12.3347 -10.0741 7
339 1 -0.923365 13.0185 -9.944 5
234 1 3.81602 13.5943 -9.96921 5
621 1 2.30887 14.525 -9.98032 3
397 1 2.26668 12.789 -10.084 8
432 1 1.28584 12.5535 -8.82468 0
261 1 0.693516 13.7565 -9.9735 5
524 1 0.548887 12.04 -10.1561 9
566 1 6.92175 13.4531 -9.94425 4
136 1 7.61434 12.0833 -8.86753 0
640 1 5.37558 12.7477 -10.0694 7
89 1 4.40767 12.3121 -8.86859 0
786 1 8.53184 12.7436 -10.0457 4
334 1 -5.06292 -14.1668 -7.75629 0
276 1 -6.65801 -13.376 -7.79535 0
655 1 -5.17733 -12.3752 -7.81195 0
490 1 -3.59413 -13.0602 -7.74192 0
200 1 -2.11435 -12.0503 -7.68923 0
365 1 -7.02948 -9.81523 -7.76416 0
114 1 -6.82034 -11.6056 -7.73592 0